
#(C) 2015 by Fachinformationszentrum Karlsruhe.  All rights reserved.
data_97046-ICSD
_database_code_ICSD 97046
_audit_creation_date 2004-10-01
_audit_update_record 2007-08-01
_chemical_name_systematic 'Gadolinium mangano(III)manganate(IV)'
_chemical_formula_structural 'Gd (Mn2 O5)'
_chemical_formula_sum 'Gd1 Mn2 O5'
_chemical_name_structure_type DyMn2O5
_exptl_crystal_density_diffrn 6.47
_publ_section_title 'Structure and ferroelectricity of R Mn2 O5'
loop_
_citation_id
_citation_journal_full
_citation_year
_citation_journal_volume
_citation_page_first
_citation_page_last
_citation_journal_id_ASTM
primary Ferroelectrics 2002 280 131 143 FEROA8
loop_
_publ_author_name
'Kagomiya, I.'
'Kohn, K.'
'Uchiyama, T.'
_cell_length_a 7.3531(3)
_cell_length_b 8.5371(4)
_cell_length_c 5.6807(3)
_cell_angle_alpha 90
_cell_angle_beta 90
_cell_angle_gamma 90
_cell_volume 356.6
_cell_formula_units_Z 4
_symmetry_space_group_name_H-M 'P b a m'
_symmetry_Int_Tables_number 55
_refine_ls_R_factor_all 0.0896
loop_
_symmetry_equiv_pos_site_id
_symmetry_equiv_pos_as_xyz
1 'x+1/2, -y+1/2, z'
2 '-x+1/2, y+1/2, z'
3 'x, y, -z'
4 '-x, -y, -z'
5 '-x+1/2, y+1/2, -z'
6 'x+1/2, -y+1/2, -z'
7 '-x, -y, z'
8 'x, y, z'
loop_
_atom_type_symbol
_atom_type_oxidation_number
Gd3+ 3
Mn4+ 4
Mn3+ 3
O2- -2
loop_
_atom_site_label
_atom_site_type_symbol
_atom_site_symmetry_multiplicity
_atom_site_Wyckoff_symbol
_atom_site_fract_x
_atom_site_fract_y
_atom_site_fract_z
_atom_site_B_iso_or_equiv
_atom_site_occupancy
_atom_site_attached_hydrogens
Gd1 Gd3+ 4 g 0.1395(1) 0.1716(2) 0 . 1. 0
Mn1 Mn4+ 4 f 0 0.5 0.2551(7) . 1. 0
Mn2 Mn3+ 4 h 0.4118(3) 0.3518(4) 0.5 . 1. 0
O1 O2- 4 e 0 0 0.2697(25) . 1. 0
O2 O2- 4 g 0.1526(14) 0.4486(13) 0 . 1. 0
O3 O2- 4 h 0.1454(17) 0.4356(11) 0.5 . 1. 0
O4 O2- 8 i 0.3994(8) 0.2076(9) 0.2450(12) . 1. 0
#End of TTdata_97046-ICSD