
#(C) 2024 by FIZ Karlsruhe - Leibniz Institute for Information Infrastructure.  All rights reserved.
data_31575-ICSD
_database_code_ICSD 31575
_audit_creation_date 1980-01-01
_audit_update_record 2006-04-01
_chemical_name_common 'Cerium chloride'
_chemical_formula_structural 'Ce Cl3'
_chemical_formula_sum 'Ce1 Cl3'
_chemical_name_structure_type UCl3
_exptl_crystal_density_diffrn 3.95
_citation_title
'Crystal chemical studies of the 5f-Series of elements. I. New structure types'
loop_
_citation_id
_citation_journal_full
_citation_year
_citation_journal_volume
_citation_page_first
_citation_page_last
_citation_journal_id_ASTM
primary 'Acta Crystallographica' 1948 1 265 268 ACCRA9
loop_
_citation_author_citation_id
_citation_author_name
primary 'Zachariasen, W.H.'
_cell_length_a 7.451(4)
_cell_length_b 7.451(4)
_cell_length_c 4.312(4)
_cell_angle_alpha 90.
_cell_angle_beta 90.
_cell_angle_gamma 120.
_cell_volume 207.32
_cell_formula_units_Z 2
_space_group_name_H-M_alt 'P 63/m'
_space_group_IT_number 176
loop_
_space_group_symop_id
_space_group_symop_operation_xyz
1 '-x+y, -x, -z+1/2'
2 '-y, x-y, -z+1/2'
3 'x, y, -z+1/2'
4 'x-y, x, -z'
5 'y, -x+y, -z'
6 '-x, -y, -z'
7 'x-y, x, z+1/2'
8 'y, -x+y, z+1/2'
9 '-x, -y, z+1/2'
10 '-x+y, -x, z'
11 '-y, x-y, z'
12 'x, y, z'
loop_
_atom_type_symbol
_atom_type_oxidation_number
Ce3+ 3
Cl1- -1
loop_
_atom_site_label
_atom_site_type_symbol
_atom_site_symmetry_multiplicity
_atom_site_Wyckoff_symbol
_atom_site_fract_x
_atom_site_fract_y
_atom_site_fract_z
_atom_site_B_iso_or_equiv
_atom_site_occupancy
Ce1 Ce3+ 2 c 0.3333 0.6667 0.25 . 1.
Cl1 Cl1- 6 h 0.375 0.292 0.25 . 1.
#End of TTdata_31575-ICSD